s 1.000000000 _0_ AGT  --- 0 cbr 100 [0 0 0 0] ------- [0:0 8:0 32 0] [0] 0 0
s 1.000535000 _0_ MAC  --- 0 AODV 106 [0 ffffffff 0 800] ------- [0:255 -1:255 30 0] [0x2 1 1 [8 0] [0 4]] (REQUEST)
s 1.000800000 _0_ AGT  --- 1 cbr 100 [0 0 0 0] ------- [0:0 8:0 32 0] [1] 0 0
r 1.001383473 _2_ MAC  --- 0 AODV 48 [0 ffffffff 0 800] ------- [0:255 -1:255 30 0] [0x2 1 1 [8 0] [0 4]] (REQUEST)
r 1.001383662 _1_ MAC  --- 0 AODV 48 [0 ffffffff 0 800] ------- [0:255 -1:255 30 0] [0x2 1 1 [8 0] [0 4]] (REQUEST)
s 1.001600000 _0_ AGT  --- 2 cbr 100 [0 0 0 0] ------- [0:0 8:0 32 0] [2] 0 0
s 1.002400000 _0_ AGT  --- 3 cbr 100 [0 0 0 0] ------- [0:0 8:0 32 0] [3] 0 0
s 1.003200000 _0_ AGT  --- 4 cbr 100 [0 0 0 0] ------- [0:0 8:0 32 0] [4] 0 0
s 1.003665116 _1_ MAC  --- 0 AODV 106 [0 ffffffff 1 800] ------- [1:255 -1:255 29 0] [0x2 2 1 [8 0] [0 4]] (REQUEST)
s 1.004000000 _0_ AGT  --- 5 cbr 100 [0 0 0 0] ------- [0:0 8:0 32 0] [5] 0 0
r 1.004513711 _3_ MAC  --- 0 AODV 48 [0 ffffffff 1 800] ------- [1:255 -1:255 29 0] [0x2 2 1 [8 0] [0 4]] (REQUEST)
r 1.004513777 _0_ MAC  --- 0 AODV 48 [0 ffffffff 1 800] ------- [1:255 -1:255 29 0] [0x2 2 1 [8 0] [0 4]] (REQUEST)
s 1.004800000 _0_ AGT  --- 6 cbr 100 [0 0 0 0] ------- [0:0 8:0 32 0] [6] 0 0
s 1.005600000 _0_ AGT  --- 7 cbr 100 [0 0 0 0] ------- [0:0 8:0 32 0] [7] 0 0
s 1.006400000 _0_ AGT  --- 8 cbr 100 [0 0 0 0] ------- [0:0 8:0 32 0] [8] 0 0
s 1.007200000 _0_ AGT  --- 9 cbr 100 [0 0 0 0] ------- [0:0 8:0 32 0] [9] 0 0
s 1.007214590 _3_ MAC  --- 0 AODV 106 [0 ffffffff 3 800] ------- [3:255 -1:255 28 0] [0x2 3 1 [8 0] [0 4]] (REQUEST)
s 1.008000000 _0_ AGT  --- 10 cbr 100 [0 0 0 0] ------- [0:0 8:0 32 0] [10] 0 0
r 1.008063185 _1_ MAC  --- 0 AODV 48 [0 ffffffff 3 800] ------- [3:255 -1:255 28 0] [0x2 3 1 [8 0] [0 4]] (REQUEST)
r 1.008063202 _4_ MAC  --- 0 AODV 48 [0 ffffffff 3 800] ------- [3:255 -1:255 28 0] [0x2 3 1 [8 0] [0 4]] (REQUEST)
s 1.008800000 _0_ AGT  --- 11 cbr 100 [0 0 0 0] ------- [0:0 8:0 32 0] [11] 0 0
s 1.009600000 _0_ AGT  --- 12 cbr 100 [0 0 0 0] ------- [0:0 8:0 32 0] [12] 0 0
s 1.009926708 _2_ MAC  --- 0 AODV 106 [0 ffffffff 2 800] ------- [2:255 -1:255 29 0] [0x2 2 1 [8 0] [0 4]] (REQUEST)
s 1.010400000 _0_ AGT  --- 13 cbr 100 [0 0 0 0] ------- [0:0 8:0 32 0] [13] 0 0
r 1.010775149 _6_ MAC  --- 0 AODV 48 [0 ffffffff 2 800] ------- [2:255 -1:255 29 0] [0x2 2 1 [8 0] [0 4]] (REQUEST)
r 1.010775181 _0_ MAC  --- 0 AODV 48 [0 ffffffff 2 800] ------- [2:255 -1:255 29 0] [0x2 2 1 [8 0] [0 4]] (REQUEST)
r 1.010775269 _4_ MAC  --- 0 AODV 48 [0 ffffffff 2 800] ------- [2:255 -1:255 29 0] [0x2 2 1 [8 0] [0 4]] (REQUEST)
r 1.010775421 _5_ MAC  --- 0 AODV 48 [0 ffffffff 2 800] ------- [2:255 -1:255 29 0] [0x2 2 1 [8 0] [0 4]] (REQUEST)
s 1.011200000 _0_ AGT  --- 14 cbr 100 [0 0 0 0] ------- [0:0 8:0 32 0] [14] 0 0
s 1.012000000 _0_ AGT  --- 15 cbr 100 [0 0 0 0] ------- [0:0 8:0 32 0] [15] 0 0
s 1.012286456 _5_ MAC  --- 0 AODV 106 [0 ffffffff 5 800] ------- [5:255 -1:255 28 0] [0x2 3 1 [8 0] [0 4]] (REQUEST)
s 1.012800000 _0_ AGT  --- 16 cbr 100 [0 0 0 0] ------- [0:0 8:0 32 0] [16] 0 0
r 1.013134947 _4_ MAC  --- 0 AODV 48 [0 ffffffff 5 800] ------- [5:255 -1:255 28 0] [0x2 3 1 [8 0] [0 4]] (REQUEST)
r 1.013134973 _8_ MAC  --- 0 AODV 48 [0 ffffffff 5 800] ------- [5:255 -1:255 28 0] [0x2 3 1 [8 0] [0 4]] (REQUEST)
r 1.013135017 _6_ MAC  --- 0 AODV 48 [0 ffffffff 5 800] ------- [5:255 -1:255 28 0] [0x2 3 1 [8 0] [0 4]] (REQUEST)
r 1.013135169 _2_ MAC  --- 0 AODV 48 [0 ffffffff 5 800] ------- [5:255 -1:255 28 0] [0x2 3 1 [8 0] [0 4]] (REQUEST)
r 1.013135210 _7_ MAC  --- 0 AODV 48 [0 ffffffff 5 800] ------- [5:255 -1:255 28 0] [0x2 3 1 [8 0] [0 4]] (REQUEST)
s 1.013514973 _8_ MAC  --- 0 ARP 86 [0 ffffffff 8 806] ------- [REQUEST 8/8 0/5]
s 1.013600000 _0_ AGT  --- 17 cbr 100 [0 0 0 0] ------- [0:0 8:0 32 0] [17] 0 0
r 1.014203491 _5_ MAC  --- 0 ARP 28 [0 ffffffff 8 806] ------- [REQUEST 8/8 0/5]
r 1.014203524 _7_ MAC  --- 0 ARP 28 [0 ffffffff 8 806] ------- [REQUEST 8/8 0/5]
r 1.014203729 _6_ MAC  --- 0 ARP 28 [0 ffffffff 8 806] ------- [REQUEST 8/8 0/5]
s 1.014358491 _5_ MAC  --- 0 RTS 44 [52e 8 5 0] 
s 1.014400000 _0_ AGT  --- 18 cbr 100 [0 0 0 0] ------- [0:0 8:0 32 0] [18] 0 0
r 1.014711008 _8_ MAC  --- 0 RTS 44 [52e 8 5 0] 
s 1.014721008 _8_ MAC  --- 0 CTS 38 [3f4 5 0 0] 
r 1.015025525 _5_ MAC  --- 0 CTS 38 [3f4 5 0 0] 
s 1.015035525 _5_ MAC  --- 0 ARP 86 [13a 8 5 806] ------- [REPLY 5/5 8/8]
s 1.015200000 _0_ AGT  --- 19 cbr 100 [0 0 0 0] ------- [0:0 8:0 32 0] [19] 0 0
r 1.015724043 _8_ MAC  --- 0 ARP 28 [13a 8 5 806] ------- [REPLY 5/5 8/8]
s 1.015734043 _8_ MAC  --- 0 ACK 38 [0 5 0 0] 
s 1.016000000 _0_ AGT  --- 20 cbr 100 [0 0 0 0] ------- [0:0 8:0 32 0] [20] 0 0
r 1.016038560 _5_ MAC  --- 0 ACK 38 [0 5 0 0] 
s 1.016108799 _6_ MAC  --- 0 AODV 106 [0 ffffffff 6 800] ------- [6:255 -1:255 28 0] [0x2 3 1 [8 0] [0 4]] (REQUEST)
s 1.016800000 _0_ AGT  --- 21 cbr 100 [0 0 0 0] ------- [0:0 8:0 32 0] [21] 0 0
r 1.016957240 _2_ MAC  --- 0 AODV 48 [0 ffffffff 6 800] ------- [6:255 -1:255 28 0] [0x2 3 1 [8 0] [0 4]] (REQUEST)
r 1.016957303 _7_ MAC  --- 0 AODV 48 [0 ffffffff 6 800] ------- [6:255 -1:255 28 0] [0x2 3 1 [8 0] [0 4]] (REQUEST)
r 1.016957360 _5_ MAC  --- 0 AODV 48 [0 ffffffff 6 800] ------- [6:255 -1:255 28 0] [0x2 3 1 [8 0] [0 4]] (REQUEST)
r 1.016957543 _4_ MAC  --- 0 AODV 48 [0 ffffffff 6 800] ------- [6:255 -1:255 28 0] [0x2 3 1 [8 0] [0 4]] (REQUEST)
r 1.016957554 _8_ MAC  --- 0 AODV 48 [0 ffffffff 6 800] ------- [6:255 -1:255 28 0] [0x2 3 1 [8 0] [0 4]] (REQUEST)
s 1.017087554 _8_ MAC  --- 0 RTS 44 [5ae 5 8 0] 
r 1.017440072 _5_ MAC  --- 0 RTS 44 [5ae 5 8 0] 
s 1.017450072 _5_ MAC  --- 0 CTS 38 [474 8 0 0] 
s 1.017600000 _0_ AGT  --- 22 cbr 100 [0 0 0 0] ------- [0:0 8:0 32 0] [22] 0 0
r 1.017754589 _8_ MAC  --- 0 CTS 38 [474 8 0 0] 
s 1.017764589 _8_ MAC  --- 0 AODV 102 [13a 5 8 800] ------- [8:255 0:255 30 5] [0x4 1 [8 4] 10.000000] (REPLY)
s 1.018400000 _0_ AGT  --- 23 cbr 100 [0 0 0 0] ------- [0:0 8:0 32 0] [23] 0 0
r 1.018581107 _5_ MAC  --- 0 AODV 44 [13a 5 8 800] ------- [8:255 0:255 30 5] [0x4 1 [8 4] 10.000000] (REPLY)
s 1.018591107 _5_ MAC  --- 0 ACK 38 [0 8 0 0] 
r 1.018895624 _8_ MAC  --- 0 ACK 38 [0 8 0 0] 
s 1.019005107 _5_ MAC  --- 0 ARP 86 [0 ffffffff 5 806] ------- [REQUEST 5/5 0/2]
s 1.019200000 _0_ AGT  --- 24 cbr 100 [0 0 0 0] ------- [0:0 8:0 32 0] [24] 0 0
r 1.019693598 _4_ MAC  --- 0 ARP 28 [0 ffffffff 5 806] ------- [REQUEST 5/5 0/2]
r 1.019693624 _8_ MAC  --- 0 ARP 28 [0 ffffffff 5 806] ------- [REQUEST 5/5 0/2]
r 1.019693668 _6_ MAC  --- 0 ARP 28 [0 ffffffff 5 806] ------- [REQUEST 5/5 0/2]
r 1.019693819 _2_ MAC  --- 0 ARP 28 [0 ffffffff 5 806] ------- [REQUEST 5/5 0/2]
r 1.019693861 _7_ MAC  --- 0 ARP 28 [0 ffffffff 5 806] ------- [REQUEST 5/5 0/2]
s 1.020000000 _0_ AGT  --- 25 cbr 100 [0 0 0 0] ------- [0:0 8:0 32 0] [25] 0 0
s 1.020063598 _4_ MAC  --- 0 AODV 106 [0 ffffffff 4 800] ------- [4:255 -1:255 27 0] [0x2 4 1 [8 0] [0 4]] (REQUEST)
s 1.020800000 _0_ AGT  --- 26 cbr 100 [0 0 0 0] ------- [0:0 8:0 32 0] [26] 0 0
r 1.020912089 _5_ MAC  --- 0 AODV 48 [0 ffffffff 4 800] ------- [4:255 -1:255 27 0] [0x2 4 1 [8 0] [0 4]] (REQUEST)
r 1.020912159 _2_ MAC  --- 0 AODV 48 [0 ffffffff 4 800] ------- [4:255 -1:255 27 0] [0x2 4 1 [8 0] [0 4]] (REQUEST)
r 1.020912210 _3_ MAC  --- 0 AODV 48 [0 ffffffff 4 800] ------- [4:255 -1:255 27 0] [0x2 4 1 [8 0] [0 4]] (REQUEST)
r 1.020912343 _6_ MAC  --- 0 AODV 48 [0 ffffffff 4 800] ------- [4:255 -1:255 27 0] [0x2 4 1 [8 0] [0 4]] (REQUEST)
s 1.021222159 _2_ MAC  --- 0 RTS 44 [52e 5 2 0] 
r 1.021574871 _5_ MAC  --- 0 RTS 44 [52e 5 2 0] 
s 1.021584871 _5_ MAC  --- 0 CTS 38 [3f4 2 0 0] 
s 1.021600000 _0_ AGT  --- 27 cbr 100 [0 0 0 0] ------- [0:0 8:0 32 0] [27] 0 0
r 1.021889584 _2_ MAC  --- 0 CTS 38 [3f4 2 0 0] 
s 1.021899584 _2_ MAC  --- 0 ARP 86 [13a 5 2 806] ------- [REPLY 2/2 5/5]
s 1.022400000 _0_ AGT  --- 28 cbr 100 [0 0 0 0] ------- [0:0 8:0 32 0] [28] 0 0
r 1.022588297 _5_ MAC  --- 0 ARP 28 [13a 5 2 806] ------- [REPLY 2/2 5/5]
s 1.022598297 _5_ MAC  --- 0 ACK 38 [0 2 0 0] 
r 1.022903010 _2_ MAC  --- 0 ACK 38 [0 2 0 0] 
s 1.023200000 _0_ AGT  --- 29 cbr 100 [0 0 0 0] ------- [0:0 8:0 32 0] [29] 0 0
s 1.023212297 _5_ MAC  --- 0 RTS 44 [5ae 2 5 0] 
r 1.023565010 _2_ MAC  --- 0 RTS 44 [5ae 2 5 0] 
s 1.023575010 _2_ MAC  --- 0 CTS 38 [474 5 0 0] 
r 1.023879723 _5_ MAC  --- 0 CTS 38 [474 5 0 0] 
s 1.023889723 _5_ MAC  --- 0 AODV 102 [13a 2 5 800] ------- [8:255 0:255 29 2] [0x4 2 [8 4] 10.000000] (REPLY)
s 1.024000000 _0_ AGT  --- 30 cbr 100 [0 0 0 0] ------- [0:0 8:0 32 0] [30] 0 0
r 1.024706435 _2_ MAC  --- 0 AODV 44 [13a 2 5 800] ------- [8:255 0:255 29 2] [0x4 2 [8 4] 10.000000] (REPLY)
s 1.024716435 _2_ MAC  --- 0 ACK 38 [0 5 0 0] 
s 1.024800000 _0_ AGT  --- 31 cbr 100 [0 0 0 0] ------- [0:0 8:0 32 0] [31] 0 0
r 1.025021148 _5_ MAC  --- 0 ACK 38 [0 5 0 0] 
s 1.025590435 _2_ MAC  --- 0 ARP 86 [0 ffffffff 2 806] ------- [REQUEST 2/2 0/0]
s 1.025600000 _0_ AGT  --- 32 cbr 100 [0 0 0 0] ------- [0:0 8:0 32 0] [32] 0 0
r 1.026278876 _6_ MAC  --- 0 ARP 28 [0 ffffffff 2 806] ------- [REQUEST 2/2 0/0]
r 1.026278908 _0_ MAC  --- 0 ARP 28 [0 ffffffff 2 806] ------- [REQUEST 2/2 0/0]
r 1.026278996 _4_ MAC  --- 0 ARP 28 [0 ffffffff 2 806] ------- [REQUEST 2/2 0/0]
r 1.026279148 _5_ MAC  --- 0 ARP 28 [0 ffffffff 2 806] ------- [REQUEST 2/2 0/0]
s 1.026400000 _0_ AGT  --- 33 cbr 100 [0 0 0 0] ------- [0:0 8:0 32 0] [33] 0 0
s 1.026473908 _0_ MAC  --- 0 RTS 44 [52e 2 0 0] 
r 1.026826381 _2_ MAC  --- 0 RTS 44 [52e 2 0 0] 
s 1.026836381 _2_ MAC  --- 0 CTS 38 [3f4 0 0 0] 
r 1.027140854 _0_ MAC  --- 0 CTS 38 [3f4 0 0 0] 
s 1.027150854 _0_ MAC  --- 0 ARP 86 [13a 2 0 806] ------- [REPLY 0/0 2/2]
s 1.027200000 _0_ AGT  --- 34 cbr 100 [0 0 0 0] ------- [0:0 8:0 32 0] [34] 0 0
r 1.027839326 _2_ MAC  --- 0 ARP 28 [13a 2 0 806] ------- [REPLY 0/0 2/2]
s 1.027849326 _2_ MAC  --- 0 ACK 38 [0 0 0 0] 
s 1.028000000 _0_ AGT  --- 35 cbr 100 [0 0 0 0] ------- [0:0 8:0 32 0] [35] 0 0
r 1.028153799 _0_ MAC  --- 0 ACK 38 [0 0 0 0] 
s 1.028443326 _2_ MAC  --- 0 RTS 44 [5ae 0 2 0] 
r 1.028795799 _0_ MAC  --- 0 RTS 44 [5ae 0 2 0] 
s 1.028800000 _0_ AGT  --- 36 cbr 100 [0 0 0 0] ------- [0:0 8:0 32 0] [36] 0 0
s 1.028805799 _0_ MAC  --- 0 CTS 38 [474 2 0 0] 
r 1.029110272 _2_ MAC  --- 0 CTS 38 [474 2 0 0] 
s 1.029120272 _2_ MAC  --- 0 AODV 102 [13a 0 2 800] ------- [8:255 0:255 28 0] [0x4 3 [8 4] 10.000000] (REPLY)
s 1.029600000 _0_ AGT  --- 37 cbr 100 [0 0 0 0] ------- [0:0 8:0 32 0] [37] 0 0
r 1.029936745 _0_ MAC  --- 0 AODV 44 [13a 0 2 800] ------- [8:255 0:255 28 0] [0x4 3 [8 4] 10.000000] (REPLY)
s 1.029946745 _0_ MAC  --- 0 ACK 38 [0 2 0 0] 
r 1.030251217 _2_ MAC  --- 0 ACK 38 [0 2 0 0] 
s 1.030300745 _0_ MAC  --- 0 RTS 44 [80e 2 0 0] 
s 1.030400000 _0_ AGT  --- 38 cbr 100 [0 0 0 0] ------- [0:0 8:0 32 0] [38] 0 0
r 1.030653217 _2_ MAC  --- 0 RTS 44 [80e 2 0 0] 
s 1.030663217 _2_ MAC  --- 0 CTS 38 [6d4 0 0 0] 
r 1.030967690 _0_ MAC  --- 0 CTS 38 [6d4 0 0 0] 
s 1.030977690 _0_ MAC  --- 0 cbr 178 [13a 2 0 800] ------- [0:0 8:0 30 2] [0] 0 0
s 1.031200000 _0_ AGT  --- 39 cbr 100 [0 0 0 0] ------- [0:0 8:0 32 0] [39] 0 0
s 1.032000000 _0_ AGT  --- 40 cbr 100 [0 0 0 0] ------- [0:0 8:0 32 0] [40] 0 0
r 1.032402163 _2_ MAC  --- 0 cbr 120 [13a 2 0 800] ------- [0:0 8:0 30 2] [0] 1 0
s 1.032412163 _2_ MAC  --- 0 ACK 38 [0 0 0 0] 
r 1.032716636 _0_ MAC  --- 0 ACK 38 [0 0 0 0] 
s 1.032786636 _0_ MAC  --- 0 RTS 44 [80e 2 0 0] 
s 1.032800000 _0_ AGT  --- 41 cbr 100 [0 0 0 0] ------- [0:0 8:0 32 0] [41] 0 0
r 1.033139108 _2_ MAC  --- 0 RTS 44 [80e 2 0 0] 
s 1.033149108 _2_ MAC  --- 0 CTS 38 [6d4 0 0 0] 
r 1.033453581 _0_ MAC  --- 0 CTS 38 [6d4 0 0 0] 
s 1.033463581 _0_ MAC  --- 38 cbr 178 [13a 2 0 800] ------- [0:0 8:0 30 2] [38] 0 0
s 1.033600000 _0_ AGT  --- 42 cbr 100 [0 0 0 0] ------- [0:0 8:0 32 0] [42] 0 0
s 1.034400000 _0_ AGT  --- 43 cbr 100 [0 0 0 0] ------- [0:0 8:0 32 0] [43] 0 0
r 1.034888054 _2_ MAC  --- 38 cbr 120 [13a 2 0 800] ------- [0:0 8:0 30 2] [38] 1 0
s 1.034898054 _2_ MAC  --- 0 ACK 38 [0 0 0 0] 
s 1.035200000 _0_ AGT  --- 44 cbr 100 [0 0 0 0] ------- [0:0 8:0 32 0] [44] 0 0
r 1.035202527 _0_ MAC  --- 0 ACK 38 [0 0 0 0] 
s 1.035432054 _2_ MAC  --- 0 RTS 44 [80e 5 2 0] 
r 1.035784767 _5_ MAC  --- 0 RTS 44 [80e 5 2 0] 
s 1.035794767 _5_ MAC  --- 0 CTS 38 [6d4 2 0 0] 
s 1.036000000 _0_ AGT  --- 45 cbr 100 [0 0 0 0] ------- [0:0 8:0 32 0] [45] 0 0
r 1.036099479 _2_ MAC  --- 0 CTS 38 [6d4 2 0 0] 
s 1.036109479 _2_ MAC  --- 0 cbr 178 [13a 5 2 800] ------- [0:0 8:0 29 5] [0] 1 0
s 1.036800000 _0_ AGT  --- 46 cbr 100 [0 0 0 0] ------- [0:0 8:0 32 0] [46] 0 0
r 1.037534192 _5_ MAC  --- 0 cbr 120 [13a 5 2 800] ------- [0:0 8:0 29 5] [0] 2 0
s 1.037544192 _5_ MAC  --- 0 ACK 38 [0 2 0 0] 
s 1.037600000 _0_ AGT  --- 47 cbr 100 [0 0 0 0] ------- [0:0 8:0 32 0] [47] 0 0
r 1.037848905 _2_ MAC  --- 0 ACK 38 [0 2 0 0] 
s 1.037918192 _5_ MAC  --- 0 RTS 44 [80e 8 5 0] 
r 1.038270710 _8_ MAC  --- 0 RTS 44 [80e 8 5 0] 
s 1.038280710 _8_ MAC  --- 0 CTS 38 [6d4 5 0 0] 
s 1.038400000 _0_ AGT  --- 48 cbr 100 [0 0 0 0] ------- [0:0 8:0 32 0] [48] 0 0
r 1.038585227 _5_ MAC  --- 0 CTS 38 [6d4 5 0 0] 
s 1.038595227 _5_ MAC  --- 0 cbr 178 [13a 8 5 800] ------- [0:0 8:0 28 8] [0] 2 0
s 1.039200000 _0_ AGT  --- 49 cbr 100 [0 0 0 0] ------- [0:0 8:0 32 0] [49] 0 0
s 1.040000000 _0_ AGT  --- 50 cbr 100 [0 0 0 0] ------- [0:0 8:0 32 0] [50] 0 0
r 1.040019744 _8_ MAC  --- 0 cbr 120 [13a 8 5 800] ------- [0:0 8:0 28 8] [0] 3 0
s 1.040029744 _8_ MAC  --- 0 ACK 38 [0 5 0 0] 
r 1.040044744 _8_ AGT  --- 0 cbr 120 [13a 8 5 800] ------- [0:0 8:0 28 8] [0] 3 0
r 1.040334262 _5_ MAC  --- 0 ACK 38 [0 5 0 0] 
s 1.040604295 _7_ MAC  --- 0 AODV 106 [0 ffffffff 7 800] ------- [7:255 -1:255 27 0] [0x2 4 1 [8 0] [0 4]] (REQUEST)
s 1.040800000 _0_ AGT  --- 51 cbr 100 [0 0 0 0] ------- [0:0 8:0 32 0] [51] 0 0
r 1.041452800 _6_ MAC  --- 0 AODV 48 [0 ffffffff 7 800] ------- [7:255 -1:255 27 0] [0x2 4 1 [8 0] [0 4]] (REQUEST)
r 1.041452846 _8_ MAC  --- 0 AODV 48 [0 ffffffff 7 800] ------- [7:255 -1:255 27 0] [0x2 4 1 [8 0] [0 4]] (REQUEST)
r 1.041453049 _5_ MAC  --- 0 AODV 48 [0 ffffffff 7 800] ------- [7:255 -1:255 27 0] [0x2 4 1 [8 0] [0 4]] (REQUEST)
s 1.041600000 _0_ AGT  --- 52 cbr 100 [0 0 0 0] ------- [0:0 8:0 32 0] [52] 0 0
s 1.041907241 _2_ MAC  --- 0 RTS 44 [80e 5 2 0] 
r 1.042259953 _5_ MAC  --- 0 RTS 44 [80e 5 2 0] 
s 1.042269953 _5_ MAC  --- 0 CTS 38 [6d4 2 0 0] 
s 1.042400000 _0_ AGT  --- 53 cbr 100 [0 0 0 0] ------- [0:0 8:0 32 0] [53] 0 0
r 1.042574666 _2_ MAC  --- 0 CTS 38 [6d4 2 0 0] 
s 1.042584666 _2_ MAC  --- 38 cbr 178 [13a 5 2 800] ------- [0:0 8:0 29 5] [38] 1 0
s 1.043200000 _0_ AGT  --- 54 cbr 100 [0 0 0 0] ------- [0:0 8:0 32 0] [54] 0 0
s 1.044000000 _0_ AGT  --- 55 cbr 100 [0 0 0 0] ------- [0:0 8:0 32 0] [55] 0 0
r 1.044009379 _5_ MAC  --- 38 cbr 120 [13a 5 2 800] ------- [0:0 8:0 29 5] [38] 2 0
s 1.044019379 _5_ MAC  --- 0 ACK 38 [0 2 0 0] 
r 1.044324092 _2_ MAC  --- 0 ACK 38 [0 2 0 0] 
s 1.044673379 _5_ MAC  --- 0 RTS 44 [80e 8 5 0] 
s 1.044800000 _0_ AGT  --- 56 cbr 100 [0 0 0 0] ------- [0:0 8:0 32 0] [56] 0 0
r 1.045025896 _8_ MAC  --- 0 RTS 44 [80e 8 5 0] 
s 1.045035896 _8_ MAC  --- 0 CTS 38 [6d4 5 0 0] 
r 1.045340414 _5_ MAC  --- 0 CTS 38 [6d4 5 0 0] 
s 1.045350414 _5_ MAC  --- 38 cbr 178 [13a 8 5 800] ------- [0:0 8:0 28 8] [38] 2 0
s 1.045600000 _0_ AGT  --- 57 cbr 100 [0 0 0 0] ------- [0:0 8:0 32 0] [57] 0 0
s 1.046400000 _0_ AGT  --- 58 cbr 100 [0 0 0 0] ------- [0:0 8:0 32 0] [58] 0 0
r 1.046774931 _8_ MAC  --- 38 cbr 120 [13a 8 5 800] ------- [0:0 8:0 28 8] [38] 3 0
s 1.046784931 _8_ MAC  --- 0 ACK 38 [0 5 0 0] 
r 1.046799931 _8_ AGT  --- 38 cbr 120 [13a 8 5 800] ------- [0:0 8:0 28 8] [38] 3 0
r 1.047089448 _5_ MAC  --- 0 ACK 38 [0 5 0 0] 
s 1.047200000 _0_ AGT  --- 59 cbr 100 [0 0 0 0] ------- [0:0 8:0 32 0] [59] 0 0
s 1.047764507 _0_ MAC  --- 0 RTS 44 [80e 2 0 0] 
s 1.048000000 _0_ AGT  --- 60 cbr 100 [0 0 0 0] ------- [0:0 8:0 32 0] [60] 0 0
r 1.048116980 _2_ MAC  --- 0 RTS 44 [80e 2 0 0] 
s 1.048126980 _2_ MAC  --- 0 CTS 38 [6d4 0 0 0] 
r 1.048431453 _0_ MAC  --- 0 CTS 38 [6d4 0 0 0] 
s 1.048441453 _0_ MAC  --- 39 cbr 178 [13a 2 0 800] ------- [0:0 8:0 30 2] [39] 0 0
s 1.048800000 _0_ AGT  --- 61 cbr 100 [0 0 0 0] ------- [0:0 8:0 32 0] [61] 0 0
s 1.049600000 _0_ AGT  --- 62 cbr 100 [0 0 0 0] ------- [0:0 8:0 32 0] [62] 0 0
r 1.049865925 _2_ MAC  --- 39 cbr 120 [13a 2 0 800] ------- [0:0 8:0 30 2] [39] 1 0
s 1.049875925 _2_ MAC  --- 0 ACK 38 [0 0 0 0] 
r 1.050180398 _0_ MAC  --- 0 ACK 38 [0 0 0 0] 
s 1.050400000 _0_ AGT  --- 63 cbr 100 [0 0 0 0] ------- [0:0 8:0 32 0] [63] 0 0
s 1.050610398 _0_ MAC  --- 0 RTS 44 [80e 2 0 0] 
r 1.050962871 _2_ MAC  --- 0 RTS 44 [80e 2 0 0] 
s 1.050972871 _2_ MAC  --- 0 CTS 38 [6d4 0 0 0] 
s 1.051200000 _0_ AGT  --- 64 cbr 100 [0 0 0 0] ------- [0:0 8:0 32 0] [64] 0 0
r 1.051277343 _0_ MAC  --- 0 CTS 38 [6d4 0 0 0] 
s 1.051287343 _0_ MAC  --- 40 cbr 178 [13a 2 0 800] ------- [0:0 8:0 30 2] [40] 0 0
s 1.052000000 _0_ AGT  --- 65 cbr 100 [0 0 0 0] ------- [0:0 8:0 32 0] [65] 0 0
r 1.052711816 _2_ MAC  --- 40 cbr 120 [13a 2 0 800] ------- [0:0 8:0 30 2] [40] 1 0
s 1.052721816 _2_ MAC  --- 0 ACK 38 [0 0 0 0] 
s 1.052800000 _0_ AGT  --- 66 cbr 100 [0 0 0 0] ------- [0:0 8:0 32 0] [66] 0 0
r 1.053026289 _0_ MAC  --- 0 ACK 38 [0 0 0 0] 
s 1.053095816 _2_ MAC  --- 0 RTS 44 [80e 5 2 0] 
r 1.053448529 _5_ MAC  --- 0 RTS 44 [80e 5 2 0] 
s 1.053458529 _5_ MAC  --- 0 CTS 38 [6d4 2 0 0] 
s 1.053600000 _0_ AGT  --- 67 cbr 100 [0 0 0 0] ------- [0:0 8:0 32 0] [67] 0 0
r 1.053763242 _2_ MAC  --- 0 CTS 38 [6d4 2 0 0] 
s 1.053773242 _2_ MAC  --- 39 cbr 178 [13a 5 2 800] ------- [0:0 8:0 29 5] [39] 1 0
s 1.054400000 _0_ AGT  --- 68 cbr 100 [0 0 0 0] ------- [0:0 8:0 32 0] [68] 0 0
r 1.055197955 _5_ MAC  --- 39 cbr 120 [13a 5 2 800] ------- [0:0 8:0 29 5] [39] 2 0
s 1.055200000 _0_ AGT  --- 69 cbr 100 [0 0 0 0] ------- [0:0 8:0 32 0] [69] 0 0
s 1.055207955 _5_ MAC  --- 0 ACK 38 [0 2 0 0] 
r 1.055512667 _2_ MAC  --- 0 ACK 38 [0 2 0 0] 
s 1.055941955 _5_ MAC  --- 0 RTS 44 [80e 8 5 0] 
s 1.056000000 _0_ AGT  --- 70 cbr 100 [0 0 0 0] ------- [0:0 8:0 32 0] [70] 0 0
r 1.056294472 _8_ MAC  --- 0 RTS 44 [80e 8 5 0] 
s 1.056304472 _8_ MAC  --- 0 CTS 38 [6d4 5 0 0] 
r 1.056608989 _5_ MAC  --- 0 CTS 38 [6d4 5 0 0] 
s 1.056618989 _5_ MAC  --- 39 cbr 178 [13a 8 5 800] ------- [0:0 8:0 28 8] [39] 2 0
s 1.056800000 _0_ AGT  --- 71 cbr 100 [0 0 0 0] ------- [0:0 8:0 32 0] [71] 0 0
s 1.057600000 _0_ AGT  --- 72 cbr 100 [0 0 0 0] ------- [0:0 8:0 32 0] [72] 0 0
r 1.058043507 _8_ MAC  --- 39 cbr 120 [13a 8 5 800] ------- [0:0 8:0 28 8] [39] 3 0
s 1.058053507 _8_ MAC  --- 0 ACK 38 [0 5 0 0] 
r 1.058068507 _8_ AGT  --- 39 cbr 120 [13a 8 5 800] ------- [0:0 8:0 28 8] [39] 3 0
r 1.058358024 _5_ MAC  --- 0 ACK 38 [0 5 0 0] 
s 1.058400000 _0_ AGT  --- 73 cbr 100 [0 0 0 0] ------- [0:0 8:0 32 0] [73] 0 0
s 1.058992612 _2_ MAC  --- 0 RTS 44 [80e 5 2 0] 
s 1.059200000 _0_ AGT  --- 74 cbr 100 [0 0 0 0] ------- [0:0 8:0 32 0] [74] 0 0
r 1.059345324 _5_ MAC  --- 0 RTS 44 [80e 5 2 0] 
s 1.059355324 _5_ MAC  --- 0 CTS 38 [6d4 2 0 0] 
r 1.059660037 _2_ MAC  --- 0 CTS 38 [6d4 2 0 0] 
s 1.059670037 _2_ MAC  --- 40 cbr 178 [13a 5 2 800] ------- [0:0 8:0 29 5] [40] 1 0
s 1.060000000 _0_ AGT  --- 75 cbr 100 [0 0 0 0] ------- [0:0 8:0 32 0] [75] 0 0
s 1.060800000 _0_ AGT  --- 76 cbr 100 [0 0 0 0] ------- [0:0 8:0 32 0] [76] 0 0
r 1.061094750 _5_ MAC  --- 40 cbr 120 [13a 5 2 800] ------- [0:0 8:0 29 5] [40] 2 0
s 1.061104750 _5_ MAC  --- 0 ACK 38 [0 2 0 0] 
r 1.061409463 _2_ MAC  --- 0 ACK 38 [0 2 0 0] 
s 1.061600000 _0_ AGT  --- 77 cbr 100 [0 0 0 0] ------- [0:0 8:0 32 0] [77] 0 0
s 1.061838750 _5_ MAC  --- 0 RTS 44 [80e 8 5 0] 
r 1.062191267 _8_ MAC  --- 0 RTS 44 [80e 8 5 0] 
s 1.062201267 _8_ MAC  --- 0 CTS 38 [6d4 5 0 0] 
s 1.062400000 _0_ AGT  --- 78 cbr 100 [0 0 0 0] ------- [0:0 8:0 32 0] [78] 0 0
r 1.062505785 _5_ MAC  --- 0 CTS 38 [6d4 5 0 0] 
s 1.062515785 _5_ MAC  --- 40 cbr 178 [13a 8 5 800] ------- [0:0 8:0 28 8] [40] 2 0
s 1.063200000 _0_ AGT  --- 79 cbr 100 [0 0 0 0] ------- [0:0 8:0 32 0] [79] 0 0
r 1.063940302 _8_ MAC  --- 40 cbr 120 [13a 8 5 800] ------- [0:0 8:0 28 8] [40] 3 0
s 1.063950302 _8_ MAC  --- 0 ACK 38 [0 5 0 0] 
r 1.063965302 _8_ AGT  --- 40 cbr 120 [13a 8 5 800] ------- [0:0 8:0 28 8] [40] 3 0
s 1.064000000 _0_ AGT  --- 80 cbr 100 [0 0 0 0] ------- [0:0 8:0 32 0] [80] 0 0
r 1.064254819 _5_ MAC  --- 0 ACK 38 [0 5 0 0] 
s 1.064800000 _0_ AGT  --- 81 cbr 100 [0 0 0 0] ------- [0:0 8:0 32 0] [81] 0 0
s 1.064889878 _0_ MAC  --- 0 RTS 44 [80e 2 0 0] 
r 1.065242351 _2_ MAC  --- 0 RTS 44 [80e 2 0 0] 
s 1.065252351 _2_ MAC  --- 0 CTS 38 [6d4 0 0 0] 
r 1.065556823 _0_ MAC  --- 0 CTS 38 [6d4 0 0 0] 
s 1.065566823 _0_ MAC  --- 41 cbr 178 [13a 2 0 800] ------- [0:0 8:0 30 2] [41] 0 0
s 1.065600000 _0_ AGT  --- 82 cbr 100 [0 0 0 0] ------- [0:0 8:0 32 0] [82] 0 0
s 1.066400000 _0_ AGT  --- 83 cbr 100 [0 0 0 0] ------- [0:0 8:0 32 0] [83] 0 0
r 1.066991296 _2_ MAC  --- 41 cbr 120 [13a 2 0 800] ------- [0:0 8:0 30 2] [41] 1 0
s 1.067001296 _2_ MAC  --- 0 ACK 38 [0 0 0 0] 
s 1.067200000 _0_ AGT  --- 84 cbr 100 [0 0 0 0] ------- [0:0 8:0 32 0] [84] 0 0
r 1.067305769 _0_ MAC  --- 0 ACK 38 [0 0 0 0] 
s 1.067375769 _0_ MAC  --- 0 RTS 44 [80e 2 0 0] 
r 1.067728242 _2_ MAC  --- 0 RTS 44 [80e 2 0 0] 
s 1.067738242 _2_ MAC  --- 0 CTS 38 [6d4 0 0 0] 
s 1.068000000 _0_ AGT  --- 85 cbr 100 [0 0 0 0] ------- [0:0 8:0 32 0] [85] 0 0
r 1.068042714 _0_ MAC  --- 0 CTS 38 [6d4 0 0 0] 
s 1.068052714 _0_ MAC  --- 42 cbr 178 [13a 2 0 800] ------- [0:0 8:0 30 2] [42] 0 0
s 1.068800000 _0_ AGT  --- 86 cbr 100 [0 0 0 0] ------- [0:0 8:0 32 0] [86] 0 0
r 1.069477187 _2_ MAC  --- 42 cbr 120 [13a 2 0 800] ------- [0:0 8:0 30 2] [42] 1 0
s 1.069487187 _2_ MAC  --- 0 ACK 38 [0 0 0 0] 
s 1.069600000 _0_ AGT  --- 87 cbr 100 [0 0 0 0] ------- [0:0 8:0 32 0] [87] 0 0
r 1.069791660 _0_ MAC  --- 0 ACK 38 [0 0 0 0] 
s 1.070281660 _0_ MAC  --- 0 RTS 44 [80e 2 0 0] 
s 1.070400000 _0_ AGT  --- 88 cbr 100 [0 0 0 0] ------- [0:0 8:0 32 0] [88] 0 0
r 1.070634133 _2_ MAC  --- 0 RTS 44 [80e 2 0 0] 
s 1.070644133 _2_ MAC  --- 0 CTS 38 [6d4 0 0 0] 
r 1.070948605 _0_ MAC  --- 0 CTS 38 [6d4 0 0 0] 
s 1.070958605 _0_ MAC  --- 43 cbr 178 [13a 2 0 800] ------- [0:0 8:0 30 2] [43] 0 0
s 1.071200000 _0_ AGT  --- 89 cbr 100 [0 0 0 0] ------- [0:0 8:0 32 0] [89] 0 0
D 1.071225000 _0_ IFQ  --- 89 cbr 120 [0 2 0 800] ------- [0:0 8:0 30 2] [89] 0 0
s 1.072000000 _0_ AGT  --- 90 cbr 100 [0 0 0 0] ------- [0:0 8:0 32 0] [90] 0 0
D 1.072025000 _0_ IFQ  --- 90 cbr 120 [0 2 0 800] ------- [0:0 8:0 30 2] [90] 0 0
r 1.072383078 _2_ MAC  --- 43 cbr 120 [13a 2 0 800] ------- [0:0 8:0 30 2] [43] 1 0
s 1.072393078 _2_ MAC  --- 0 ACK 38 [0 0 0 0] 
r 1.072697551 _0_ MAC  --- 0 ACK 38 [0 0 0 0] 
s 1.072800000 _0_ AGT  --- 91 cbr 100 [0 0 0 0] ------- [0:0 8:0 32 0] [91] 0 0
s 1.072847078 _2_ MAC  --- 0 RTS 44 [80e 5 2 0] 
r 1.073199791 _5_ MAC  --- 0 RTS 44 [80e 5 2 0] 
s 1.073209791 _5_ MAC  --- 0 CTS 38 [6d4 2 0 0] 
r 1.073514504 _2_ MAC  --- 0 CTS 38 [6d4 2 0 0] 
s 1.073524504 _2_ MAC  --- 41 cbr 178 [13a 5 2 800] ------- [0:0 8:0 29 5] [41] 1 0
s 1.073600000 _0_ AGT  --- 92 cbr 100 [0 0 0 0] ------- [0:0 8:0 32 0] [92] 0 0
D 1.073625000 _0_ IFQ  --- 92 cbr 120 [0 2 0 800] ------- [0:0 8:0 30 2] [92] 0 0
s 1.074400000 _0_ AGT  --- 93 cbr 100 [0 0 0 0] ------- [0:0 8:0 32 0] [93] 0 0
D 1.074425000 _0_ IFQ  --- 93 cbr 120 [0 2 0 800] ------- [0:0 8:0 30 2] [93] 0 0
r 1.074949217 _5_ MAC  --- 41 cbr 120 [13a 5 2 800] ------- [0:0 8:0 29 5] [41] 2 0
s 1.074959217 _5_ MAC  --- 0 ACK 38 [0 2 0 0] 
s 1.075200000 _0_ AGT  --- 94 cbr 100 [0 0 0 0] ------- [0:0 8:0 32 0] [94] 0 0
D 1.075225000 _0_ IFQ  --- 94 cbr 120 [0 2 0 800] ------- [0:0 8:0 30 2] [94] 0 0
r 1.075263929 _2_ MAC  --- 0 ACK 38 [0 2 0 0] 
s 1.075613217 _5_ MAC  --- 0 RTS 44 [80e 8 5 0] 
r 1.075965734 _8_ MAC  --- 0 RTS 44 [80e 8 5 0] 
s 1.075975734 _8_ MAC  --- 0 CTS 38 [6d4 5 0 0] 
s 1.076000000 _0_ AGT  --- 95 cbr 100 [0 0 0 0] ------- [0:0 8:0 32 0] [95] 0 0
D 1.076025000 _0_ IFQ  --- 95 cbr 120 [0 2 0 800] ------- [0:0 8:0 30 2] [95] 0 0
r 1.076280251 _5_ MAC  --- 0 CTS 38 [6d4 5 0 0] 
s 1.076290251 _5_ MAC  --- 41 cbr 178 [13a 8 5 800] ------- [0:0 8:0 28 8] [41] 2 0
s 1.076800000 _0_ AGT  --- 96 cbr 100 [0 0 0 0] ------- [0:0 8:0 32 0] [96] 0 0
D 1.076825000 _0_ IFQ  --- 96 cbr 120 [0 2 0 800] ------- [0:0 8:0 30 2] [96] 0 0
s 1.077600000 _0_ AGT  --- 97 cbr 100 [0 0 0 0] ------- [0:0 8:0 32 0] [97] 0 0
D 1.077625000 _0_ IFQ  --- 97 cbr 120 [0 2 0 800] ------- [0:0 8:0 30 2] [97] 0 0
r 1.077714769 _8_ MAC  --- 41 cbr 120 [13a 8 5 800] ------- [0:0 8:0 28 8] [41] 3 0
s 1.077724769 _8_ MAC  --- 0 ACK 38 [0 5 0 0] 
r 1.077739769 _8_ AGT  --- 41 cbr 120 [13a 8 5 800] ------- [0:0 8:0 28 8] [41] 3 0
r 1.078029286 _5_ MAC  --- 0 ACK 38 [0 5 0 0] 
s 1.078400000 _0_ AGT  --- 98 cbr 100 [0 0 0 0] ------- [0:0 8:0 32 0] [98] 0 0
D 1.078425000 _0_ IFQ  --- 98 cbr 120 [0 2 0 800] ------- [0:0 8:0 30 2] [98] 0 0
s 1.078683873 _2_ MAC  --- 0 RTS 44 [80e 5 2 0] 
r 1.079036586 _5_ MAC  --- 0 RTS 44 [80e 5 2 0] 
s 1.079046586 _5_ MAC  --- 0 CTS 38 [6d4 2 0 0] 
s 1.079200000 _0_ AGT  --- 99 cbr 100 [0 0 0 0] ------- [0:0 8:0 32 0] [99] 0 0
D 1.079225000 _0_ IFQ  --- 99 cbr 120 [0 2 0 800] ------- [0:0 8:0 30 2] [99] 0 0
r 1.079351299 _2_ MAC  --- 0 CTS 38 [6d4 2 0 0] 
s 1.079361299 _2_ MAC  --- 42 cbr 178 [13a 5 2 800] ------- [0:0 8:0 29 5] [42] 1 0
D 1.079986745 _0_ IFQ  --- 5 cbr 120 [0 2 0 800] ------- [0:0 8:0 30 2] [5] 0 0
s 1.080000000 _0_ AGT  --- 100 cbr 100 [0 0 0 0] ------- [0:0 8:0 32 0] [100] 0 0
D 1.080025000 _0_ IFQ  --- 100 cbr 120 [0 2 0 800] ------- [0:0 8:0 30 2] [100] 0 0
r 1.080786012 _5_ MAC  --- 42 cbr 120 [13a 5 2 800] ------- [0:0 8:0 29 5] [42] 2 0
s 1.080796012 _5_ MAC  --- 0 ACK 38 [0 2 0 0] 
s 1.080800000 _0_ AGT  --- 101 cbr 100 [0 0 0 0] ------- [0:0 8:0 32 0] [101] 0 0
D 1.080825000 _0_ IFQ  --- 101 cbr 120 [0 2 0 800] ------- [0:0 8:0 30 2] [101] 0 0
r 1.081100725 _2_ MAC  --- 0 ACK 38 [0 2 0 0] 
s 1.081230012 _5_ MAC  --- 0 RTS 44 [80e 8 5 0] 
r 1.081582529 _8_ MAC  --- 0 RTS 44 [80e 8 5 0] 
s 1.081592529 _8_ MAC  --- 0 CTS 38 [6d4 5 0 0] 
s 1.081600000 _0_ AGT  --- 102 cbr 100 [0 0 0 0] ------- [0:0 8:0 32 0] [102] 0 0
D 1.081625000 _0_ IFQ  --- 102 cbr 120 [0 2 0 800] ------- [0:0 8:0 30 2] [102] 0 0
r 1.081897047 _5_ MAC  --- 0 CTS 38 [6d4 5 0 0] 
s 1.081907047 _5_ MAC  --- 42 cbr 178 [13a 8 5 800] ------- [0:0 8:0 28 8] [42] 2 0
s 1.082400000 _0_ AGT  --- 103 cbr 100 [0 0 0 0] ------- [0:0 8:0 32 0] [103] 0 0
D 1.082425000 _0_ IFQ  --- 103 cbr 120 [0 2 0 800] ------- [0:0 8:0 30 2] [103] 0 0
s 1.083200000 _0_ AGT  --- 104 cbr 100 [0 0 0 0] ------- [0:0 8:0 32 0] [104] 0 0
D 1.083225000 _0_ IFQ  --- 104 cbr 120 [0 2 0 800] ------- [0:0 8:0 30 2] [104] 0 0
r 1.083331564 _8_ MAC  --- 42 cbr 120 [13a 8 5 800] ------- [0:0 8:0 28 8] [42] 3 0
s 1.083341564 _8_ MAC  --- 0 ACK 38 [0 5 0 0] 
r 1.083356564 _8_ AGT  --- 42 cbr 120 [13a 8 5 800] ------- [0:0 8:0 28 8] [42] 3 0
r 1.083646081 _5_ MAC  --- 0 ACK 38 [0 5 0 0] 
s 1.084000000 _0_ AGT  --- 105 cbr 100 [0 0 0 0] ------- [0:0 8:0 32 0] [105] 0 0
D 1.084025000 _0_ IFQ  --- 105 cbr 120 [0 2 0 800] ------- [0:0 8:0 30 2] [105] 0 0
s 1.084100669 _2_ MAC  --- 0 RTS 44 [80e 5 2 0] 
r 1.084453381 _5_ MAC  --- 0 RTS 44 [80e 5 2 0] 
s 1.084463381 _5_ MAC  --- 0 CTS 38 [6d4 2 0 0] 
r 1.084768094 _2_ MAC  --- 0 CTS 38 [6d4 2 0 0] 
s 1.084778094 _2_ MAC  --- 43 cbr 178 [13a 5 2 800] ------- [0:0 8:0 29 5] [43] 1 0
s 1.084800000 _0_ AGT  --- 106 cbr 100 [0 0 0 0] ------- [0:0 8:0 32 0] [106] 0 0
D 1.084825000 _0_ IFQ  --- 106 cbr 120 [0 2 0 800] ------- [0:0 8:0 30 2] [106] 0 0
s 1.085600000 _0_ AGT  --- 107 cbr 100 [0 0 0 0] ------- [0:0 8:0 32 0] [107] 0 0
D 1.085625000 _0_ IFQ  --- 107 cbr 120 [0 2 0 800] ------- [0:0 8:0 30 2] [107] 0 0
r 1.086202807 _5_ MAC  --- 43 cbr 120 [13a 5 2 800] ------- [0:0 8:0 29 5] [43] 2 0
s 1.086212807 _5_ MAC  --- 0 ACK 38 [0 2 0 0] 
s 1.086400000 _0_ AGT  --- 108 cbr 100 [0 0 0 0] ------- [0:0 8:0 32 0] [108] 0 0
D 1.086425000 _0_ IFQ  --- 108 cbr 120 [0 2 0 800] ------- [0:0 8:0 30 2] [108] 0 0
r 1.086517520 _2_ MAC  --- 0 ACK 38 [0 2 0 0] 
s 1.086626807 _5_ MAC  --- 0 RTS 44 [80e 8 5 0] 
r 1.086979324 _8_ MAC  --- 0 RTS 44 [80e 8 5 0] 
s 1.086989324 _8_ MAC  --- 0 CTS 38 [6d4 5 0 0] 
s 1.087200000 _0_ AGT  --- 109 cbr 100 [0 0 0 0] ------- [0:0 8:0 32 0] [109] 0 0
D 1.087225000 _0_ IFQ  --- 109 cbr 120 [0 2 0 800] ------- [0:0 8:0 30 2] [109] 0 0
r 1.087293842 _5_ MAC  --- 0 CTS 38 [6d4 5 0 0] 
s 1.087303842 _5_ MAC  --- 43 cbr 178 [13a 8 5 800] ------- [0:0 8:0 28 8] [43] 2 0
s 1.088000000 _0_ AGT  --- 110 cbr 100 [0 0 0 0] ------- [0:0 8:0 32 0] [110] 0 0
D 1.088025000 _0_ IFQ  --- 110 cbr 120 [0 2 0 800] ------- [0:0 8:0 30 2] [110] 0 0
r 1.088728359 _8_ MAC  --- 43 cbr 120 [13a 8 5 800] ------- [0:0 8:0 28 8] [43] 3 0
s 1.088738359 _8_ MAC  --- 0 ACK 38 [0 5 0 0] 
r 1.088753359 _8_ AGT  --- 43 cbr 120 [13a 8 5 800] ------- [0:0 8:0 28 8] [43] 3 0
s 1.088800000 _0_ AGT  --- 111 cbr 100 [0 0 0 0] ------- [0:0 8:0 32 0] [111] 0 0
D 1.088825000 _0_ IFQ  --- 111 cbr 120 [0 2 0 800] ------- [0:0 8:0 30 2] [111] 0 0
r 1.089042877 _5_ MAC  --- 0 ACK 38 [0 5 0 0] 
s 1.089600000 _0_ AGT  --- 112 cbr 100 [0 0 0 0] ------- [0:0 8:0 32 0] [112] 0 0
D 1.089625000 _0_ IFQ  --- 112 cbr 120 [0 2 0 800] ------- [0:0 8:0 30 2] [112] 0 0
s 1.089657935 _0_ MAC  --- 0 RTS 44 [80e 2 0 0] 
D 1.089986745 _0_ IFQ  --- 6 cbr 120 [0 2 0 800] ------- [0:0 8:0 30 2] [6] 0 0
r 1.090010408 _2_ MAC  --- 0 RTS 44 [80e 2 0 0] 
s 1.090020408 _2_ MAC  --- 0 CTS 38 [6d4 0 0 0] 
r 1.090324881 _0_ MAC  --- 0 CTS 38 [6d4 0 0 0] 
s 1.090334881 _0_ MAC  --- 44 cbr 178 [13a 2 0 800] ------- [0:0 8:0 30 2] [44] 0 0
s 1.090400000 _0_ AGT  --- 113 cbr 100 [0 0 0 0] ------- [0:0 8:0 32 0] [113] 0 0
D 1.090425000 _0_ IFQ  --- 113 cbr 120 [0 2 0 800] ------- [0:0 8:0 30 2] [113] 0 0
s 1.091200000 _0_ AGT  --- 114 cbr 100 [0 0 0 0] ------- [0:0 8:0 32 0] [114] 0 0